Position data for file

108 atoms

1 atom types
0.000000   10.012500 xlo xhi
0.000000   10.012500 ylo yhi
0.000000   10.012500 zlo zhi

Atoms

1 1 0.000000 0.000000 0.000000
2 1 0.000000 1.668750 1.668750
3 1 1.668750 0.000000 1.668750
4 1 1.668750 1.668750 0.000000
5 1 3.337500 0.000000 0.000000
6 1 3.337500 1.668750 1.668750
7 1 5.006250 0.000000 1.668750
8 1 5.006250 1.668750 0.000000
9 1 6.675000 0.000000 0.000000
10 1 6.675000 1.668750 1.668750
11 1 8.343750 0.000000 1.668750
12 1 8.343750 1.668750 0.000000
13 1 0.000000 3.337500 0.000000
14 1 0.000000 5.006250 1.668750
15 1 1.668750 3.337500 1.668750
16 1 1.668750 5.006250 0.000000
17 1 3.337500 3.337500 0.000000
18 1 3.337500 5.006250 1.668750
19 1 5.006250 3.337500 1.668750
20 1 5.006250 5.006250 0.000000
21 1 6.675000 3.337500 0.000000
22 1 6.675000 5.006250 1.668750
23 1 8.343750 3.337500 1.668750
24 1 8.343750 5.006250 0.000000
25 1 0.000000 6.675000 0.000000
26 1 0.000000 8.343750 1.668750
27 1 1.668750 6.675000 1.668750
28 1 1.668750 8.343750 0.000000
29 1 3.337500 6.675000 0.000000
30 1 3.337500 8.343750 1.668750
31 1 5.006250 6.675000 1.668750
32 1 5.006250 8.343750 0.000000
33 1 6.675000 6.675000 0.000000
34 1 6.675000 8.343750 1.668750
35 1 8.343750 6.675000 1.668750
36 1 8.343750 8.343750 0.000000
37 1 0.000000 0.000000 3.337500
38 1 0.000000 1.668750 5.006250
39 1 1.668750 0.000000 5.006250
40 1 1.668750 1.668750 3.337500
41 1 3.337500 0.000000 3.337500
42 1 3.337500 1.668750 5.006250
43 1 5.006250 0.000000 5.006250
44 1 5.006250 1.668750 3.337500
45 1 6.675000 0.000000 3.337500
46 1 6.675000 1.668750 5.006250
47 1 8.343750 0.000000 5.006250
48 1 8.343750 1.668750 3.337500
49 1 0.000000 3.337500 3.337500
50 1 0.000000 5.006250 5.006250
51 1 1.668750 3.337500 5.006250
52 1 1.668750 5.006250 3.337500
53 1 3.337500 3.337500 3.337500
54 1 3.337500 5.006250 5.006250
55 1 5.006250 3.337500 5.006250
56 1 5.006250 5.006250 3.337500
57 1 6.675000 3.337500 3.337500
58 1 6.675000 5.006250 5.006250
59 1 8.343750 3.337500 5.006250
60 1 8.343750 5.006250 3.337500
61 1 0.000000 6.675000 3.337500
62 1 0.000000 8.343750 5.006250
63 1 1.668750 6.675000 5.006250
64 1 1.668750 8.343750 3.337500
65 1 3.337500 6.675000 3.337500
66 1 3.337500 8.343750 5.006250
67 1 5.006250 6.675000 5.006250
68 1 5.006250 8.343750 3.337500
69 1 6.675000 6.675000 3.337500
70 1 6.675000 8.343750 5.006250
71 1 8.343750 6.675000 5.006250
72 1 8.343750 8.343750 3.337500
73 1 0.000000 0.000000 6.675000
74 1 0.000000 1.668750 8.343750
75 1 1.668750 0.000000 8.343750
76 1 1.668750 1.668750 6.675000
77 1 3.337500 0.000000 6.675000
78 1 3.337500 1.668750 8.343750
79 1 5.006250 0.000000 8.343750
80 1 5.006250 1.668750 6.675000
81 1 6.675000 0.000000 6.675000
82 1 6.675000 1.668750 8.343750
83 1 8.343750 0.000000 8.343750
84 1 8.343750 1.668750 6.675000
85 1 0.000000 3.337500 6.675000
86 1 0.000000 5.006250 8.343750
87 1 1.668750 3.337500 8.343750
88 1 1.668750 5.006250 6.675000
89 1 3.337500 3.337500 6.675000
90 1 3.337500 5.006250 8.343750
91 1 5.006250 3.337500 8.343750
92 1 5.006250 5.006250 6.675000
93 1 6.675000 3.337500 6.675000
94 1 6.675000 5.006250 8.343750
95 1 8.343750 3.337500 8.343750
96 1 8.343750 5.006250 6.675000
97 1 0.000000 6.675000 6.675000
98 1 0.000000 8.343750 8.343750
99 1 1.668750 6.675000 8.343750
100 1 1.668750 8.343750 6.675000
101 1 3.337500 6.675000 6.675000
102 1 3.337500 8.343750 8.343750
103 1 5.006250 6.675000 8.343750
104 1 5.006250 8.343750 6.675000
105 1 6.675000 6.675000 6.675000
106 1 6.675000 8.343750 8.343750
107 1 8.343750 6.675000 8.343750
108 1 8.343750 8.343750 6.675000
