Position data for file

2916 atoms

1 atom types
0.000000   9.000000 xlo xhi
0.000000   15.588457 ylo yhi
0.000000   9.000000 zlo zhi

Atoms

1 1 0.000000 0.000000 0.000000
2 1 0.500000 0.866025 0.000000
3 1 0.000000 -0.577350 0.500000
4 1 0.500000 0.288675 0.500000
5 1 1.000000 0.000000 0.000000
6 1 1.500000 0.866025 0.000000
7 1 1.000000 -0.577350 0.500000
8 1 1.500000 0.288675 0.500000
9 1 2.000000 0.000000 0.000000
10 1 2.500000 0.866025 0.000000
11 1 2.000000 -0.577350 0.500000
12 1 2.500000 0.288675 0.500000
13 1 3.000000 0.000000 0.000000
14 1 3.500000 0.866025 0.000000
15 1 3.000000 -0.577350 0.500000
16 1 3.500000 0.288675 0.500000
17 1 4.000000 0.000000 0.000000
18 1 4.500000 0.866025 0.000000
19 1 4.000000 -0.577350 0.500000
20 1 4.500000 0.288675 0.500000
21 1 5.000000 0.000000 0.000000
22 1 5.500000 0.866025 0.000000
23 1 5.000000 -0.577350 0.500000
24 1 5.500000 0.288675 0.500000
25 1 6.000000 0.000000 0.000000
26 1 6.500000 0.866025 0.000000
27 1 6.000000 -0.577350 0.500000
28 1 6.500000 0.288675 0.500000
29 1 7.000000 0.000000 0.000000
30 1 7.500000 0.866025 0.000000
31 1 7.000000 -0.577350 0.500000
32 1 7.500000 0.288675 0.500000
33 1 8.000000 0.000000 0.000000
34 1 8.500000 0.866025 0.000000
35 1 8.000000 -0.577350 0.500000
36 1 8.500000 0.288675 0.500000
37 1 0.000000 1.732051 0.000000
38 1 0.500000 2.598076 0.000000
39 1 0.000000 1.154701 0.500000
40 1 0.500000 2.020726 0.500000
41 1 1.000000 1.732051 0.000000
42 1 1.500000 2.598076 0.000000
43 1 1.000000 1.154701 0.500000
44 1 1.500000 2.020726 0.500000
45 1 2.000000 1.732051 0.000000
46 1 2.500000 2.598076 0.000000
47 1 2.000000 1.154701 0.500000
48 1 2.500000 2.020726 0.500000
49 1 3.000000 1.732051 0.000000
50 1 3.500000 2.598076 0.000000
51 1 3.000000 1.154701 0.500000
52 1 3.500000 2.020726 0.500000
53 1 4.000000 1.732051 0.000000
54 1 4.500000 2.598076 0.000000
55 1 4.000000 1.154701 0.500000
56 1 4.500000 2.020726 0.500000
57 1 5.000000 1.732051 0.000000
58 1 5.500000 2.598076 0.000000
59 1 5.000000 1.154701 0.500000
60 1 5.500000 2.020726 0.500000
61 1 6.000000 1.732051 0.000000
62 1 6.500000 2.598076 0.000000
63 1 6.000000 1.154701 0.500000
64 1 6.500000 2.020726 0.500000
65 1 7.000000 1.732051 0.000000
66 1 7.500000 2.598076 0.000000
67 1 7.000000 1.154701 0.500000
68 1 7.500000 2.020726 0.500000
69 1 8.000000 1.732051 0.000000
70 1 8.500000 2.598076 0.000000
71 1 8.000000 1.154701 0.500000
72 1 8.500000 2.020726 0.500000
73 1 0.000000 3.464102 0.000000
74 1 0.500000 4.330127 0.000000
75 1 0.000000 2.886751 0.500000
76 1 0.500000 3.752777 0.500000
77 1 1.000000 3.464102 0.000000
78 1 1.500000 4.330127 0.000000
79 1 1.000000 2.886751 0.500000
80 1 1.500000 3.752777 0.500000
81 1 2.000000 3.464102 0.000000
82 1 2.500000 4.330127 0.000000
83 1 2.000000 2.886751 0.500000
84 1 2.500000 3.752777 0.500000
85 1 3.000000 3.464102 0.000000
86 1 3.500000 4.330127 0.000000
87 1 3.000000 2.886751 0.500000
88 1 3.500000 3.752777 0.500000
89 1 4.000000 3.464102 0.000000
90 1 4.500000 4.330127 0.000000
91 1 4.000000 2.886751 0.500000
92 1 4.500000 3.752777 0.500000
93 1 5.000000 3.464102 0.000000
94 1 5.500000 4.330127 0.000000
95 1 5.000000 2.886751 0.500000
96 1 5.500000 3.752777 0.500000
97 1 6.000000 3.464102 0.000000
98 1 6.500000 4.330127 0.000000
99 1 6.000000 2.886751 0.500000
100 1 6.500000 3.752777 0.500000
101 1 7.000000 3.464102 0.000000
102 1 7.500000 4.330127 0.000000
103 1 7.000000 2.886751 0.500000
104 1 7.500000 3.752777 0.500000
105 1 8.000000 3.464102 0.000000
106 1 8.500000 4.330127 0.000000
107 1 8.000000 2.886751 0.500000
108 1 8.500000 3.752777 0.500000
109 1 0.000000 5.196152 0.000000
110 1 0.500000 6.062178 0.000000
111 1 0.000000 4.618802 0.500000
112 1 0.500000 5.484828 0.500000
113 1 1.000000 5.196152 0.000000
114 1 1.500000 6.062178 0.000000
115 1 1.000000 4.618802 0.500000
116 1 1.500000 5.484828 0.500000
117 1 2.000000 5.196152 0.000000
118 1 2.500000 6.062178 0.000000
119 1 2.000000 4.618802 0.500000
120 1 2.500000 5.484828 0.500000
121 1 3.000000 5.196152 0.000000
122 1 3.500000 6.062178 0.000000
123 1 3.000000 4.618802 0.500000
124 1 3.500000 5.484828 0.500000
125 1 4.000000 5.196152 0.000000
126 1 4.500000 6.062178 0.000000
127 1 4.000000 4.618802 0.500000
128 1 4.500000 5.484828 0.500000
129 1 5.000000 5.196152 0.000000
130 1 5.500000 6.062178 0.000000
131 1 5.000000 4.618802 0.500000
132 1 5.500000 5.484828 0.500000
133 1 6.000000 5.196152 0.000000
134 1 6.500000 6.062178 0.000000
135 1 6.000000 4.618802 0.500000
136 1 6.500000 5.484828 0.500000
137 1 7.000000 5.196152 0.000000
138 1 7.500000 6.062178 0.000000
139 1 7.000000 4.618802 0.500000
140 1 7.500000 5.484828 0.500000
141 1 8.000000 5.196152 0.000000
142 1 8.500000 6.062178 0.000000
143 1 8.000000 4.618802 0.500000
144 1 8.500000 5.484828 0.500000
145 1 0.000000 6.928203 0.000000
146 1 0.500000 7.794229 0.000000
147 1 0.000000 6.350853 0.500000
148 1 0.500000 7.216878 0.500000
149 1 1.000000 6.928203 0.000000
150 1 1.500000 7.794229 0.000000
151 1 1.000000 6.350853 0.500000
152 1 1.500000 7.216878 0.500000
153 1 2.000000 6.928203 0.000000
154 1 2.500000 7.794229 0.000000
155 1 2.000000 6.350853 0.500000
156 1 2.500000 7.216878 0.500000
157 1 3.000000 6.928203 0.000000
158 1 3.500000 7.794229 0.000000
159 1 3.000000 6.350853 0.500000
160 1 3.500000 7.216878 0.500000
161 1 4.000000 6.928203 0.000000
162 1 4.500000 7.794229 0.000000
163 1 4.000000 6.350853 0.500000
164 1 4.500000 7.216878 0.500000
165 1 5.000000 6.928203 0.000000
166 1 5.500000 7.794229 0.000000
167 1 5.000000 6.350853 0.500000
168 1 5.500000 7.216878 0.500000
169 1 6.000000 6.928203 0.000000
170 1 6.500000 7.794229 0.000000
171 1 6.000000 6.350853 0.500000
172 1 6.500000 7.216878 0.500000
173 1 7.000000 6.928203 0.000000
174 1 7.500000 7.794229 0.000000
175 1 7.000000 6.350853 0.500000
176 1 7.500000 7.216878 0.500000
177 1 8.000000 6.928203 0.000000
178 1 8.500000 7.794229 0.000000
179 1 8.000000 6.350853 0.500000
180 1 8.500000 7.216878 0.500000
181 1 0.000000 8.660254 0.000000
182 1 0.500000 9.526279 0.000000
183 1 0.000000 8.082904 0.500000
184 1 0.500000 8.948929 0.500000
185 1 1.000000 8.660254 0.000000
186 1 1.500000 9.526279 0.000000
187 1 1.000000 8.082904 0.500000
188 1 1.500000 8.948929 0.500000
189 1 2.000000 8.660254 0.000000
190 1 2.500000 9.526279 0.000000
191 1 2.000000 8.082904 0.500000
192 1 2.500000 8.948929 0.500000
193 1 3.000000 8.660254 0.000000
194 1 3.500000 9.526279 0.000000
195 1 3.000000 8.082904 0.500000
196 1 3.500000 8.948929 0.500000
197 1 4.000000 8.660254 0.000000
198 1 4.500000 9.526279 0.000000
199 1 4.000000 8.082904 0.500000
200 1 4.500000 8.948929 0.500000
201 1 5.000000 8.660254 0.000000
202 1 5.500000 9.526279 0.000000
203 1 5.000000 8.082904 0.500000
204 1 5.500000 8.948929 0.500000
205 1 6.000000 8.660254 0.000000
206 1 6.500000 9.526279 0.000000
207 1 6.000000 8.082904 0.500000
208 1 6.500000 8.948929 0.500000
209 1 7.000000 8.660254 0.000000
210 1 7.500000 9.526279 0.000000
211 1 7.000000 8.082904 0.500000
212 1 7.500000 8.948929 0.500000
213 1 8.000000 8.660254 0.000000
214 1 8.500000 9.526279 0.000000
215 1 8.000000 8.082904 0.500000
216 1 8.500000 8.948929 0.500000
217 1 0.000000 10.392305 0.000000
218 1 0.500000 11.258330 0.000000
219 1 0.000000 9.814955 0.500000
220 1 0.500000 10.680980 0.500000
221 1 1.000000 10.392305 0.000000
222 1 1.500000 11.258330 0.000000
223 1 1.000000 9.814955 0.500000
224 1 1.500000 10.680980 0.500000
225 1 2.000000 10.392305 0.000000
226 1 2.500000 11.258330 0.000000
227 1 2.000000 9.814955 0.500000
228 1 2.500000 10.680980 0.500000
229 1 3.000000 10.392305 0.000000
230 1 3.500000 11.258330 0.000000
231 1 3.000000 9.814955 0.500000
232 1 3.500000 10.680980 0.500000
233 1 4.000000 10.392305 0.000000
234 1 4.500000 11.258330 0.000000
235 1 4.000000 9.814955 0.500000
236 1 4.500000 10.680980 0.500000
237 1 5.000000 10.392305 0.000000
238 1 5.500000 11.258330 0.000000
239 1 5.000000 9.814955 0.500000
240 1 5.500000 10.680980 0.500000
241 1 6.000000 10.392305 0.000000
242 1 6.500000 11.258330 0.000000
243 1 6.000000 9.814955 0.500000
244 1 6.500000 10.680980 0.500000
245 1 7.000000 10.392305 0.000000
246 1 7.500000 11.258330 0.000000
247 1 7.000000 9.814955 0.500000
248 1 7.500000 10.680980 0.500000
249 1 8.000000 10.392305 0.000000
250 1 8.500000 11.258330 0.000000
251 1 8.000000 9.814955 0.500000
252 1 8.500000 10.680980 0.500000
253 1 0.000000 12.124356 0.000000
254 1 0.500000 12.990381 0.000000
255 1 0.000000 11.547005 0.500000
256 1 0.500000 12.413031 0.500000
257 1 1.000000 12.124356 0.000000
258 1 1.500000 12.990381 0.000000
259 1 1.000000 11.547005 0.500000
260 1 1.500000 12.413031 0.500000
261 1 2.000000 12.124356 0.000000
262 1 2.500000 12.990381 0.000000
263 1 2.000000 11.547005 0.500000
264 1 2.500000 12.413031 0.500000
265 1 3.000000 12.124356 0.000000
266 1 3.500000 12.990381 0.000000
267 1 3.000000 11.547005 0.500000
268 1 3.500000 12.413031 0.500000
269 1 4.000000 12.124356 0.000000
270 1 4.500000 12.990381 0.000000
271 1 4.000000 11.547005 0.500000
272 1 4.500000 12.413031 0.500000
273 1 5.000000 12.124356 0.000000
274 1 5.500000 12.990381 0.000000
275 1 5.000000 11.547005 0.500000
276 1 5.500000 12.413031 0.500000
277 1 6.000000 12.124356 0.000000
278 1 6.500000 12.990381 0.000000
279 1 6.000000 11.547005 0.500000
280 1 6.500000 12.413031 0.500000
281 1 7.000000 12.124356 0.000000
282 1 7.500000 12.990381 0.000000
283 1 7.000000 11.547005 0.500000
284 1 7.500000 12.413031 0.500000
285 1 8.000000 12.124356 0.000000
286 1 8.500000 12.990381 0.000000
287 1 8.000000 11.547005 0.500000
288 1 8.500000 12.413031 0.500000
289 1 0.000000 13.856406 0.000000
290 1 0.500000 14.722432 0.000000
291 1 0.000000 13.279056 0.500000
292 1 0.500000 14.145082 0.500000
293 1 1.000000 13.856406 0.000000
294 1 1.500000 14.722432 0.000000
295 1 1.000000 13.279056 0.500000
296 1 1.500000 14.145082 0.500000
297 1 2.000000 13.856406 0.000000
298 1 2.500000 14.722432 0.000000
299 1 2.000000 13.279056 0.500000
300 1 2.500000 14.145082 0.500000
301 1 3.000000 13.856406 0.000000
302 1 3.500000 14.722432 0.000000
303 1 3.000000 13.279056 0.500000
304 1 3.500000 14.145082 0.500000
305 1 4.000000 13.856406 0.000000
306 1 4.500000 14.722432 0.000000
307 1 4.000000 13.279056 0.500000
308 1 4.500000 14.145082 0.500000
309 1 5.000000 13.856406 0.000000
310 1 5.500000 14.722432 0.000000
311 1 5.000000 13.279056 0.500000
312 1 5.500000 14.145082 0.500000
313 1 6.000000 13.856406 0.000000
314 1 6.500000 14.722432 0.000000
315 1 6.000000 13.279056 0.500000
316 1 6.500000 14.145082 0.500000
317 1 7.000000 13.856406 0.000000
318 1 7.500000 14.722432 0.000000
319 1 7.000000 13.279056 0.500000
320 1 7.500000 14.145082 0.500000
321 1 8.000000 13.856406 0.000000
322 1 8.500000 14.722432 0.000000
323 1 8.000000 13.279056 0.500000
324 1 8.500000 14.145082 0.500000
325 1 0.000000 0.000000 1.000000
326 1 0.500000 0.866025 1.000000
327 1 0.000000 -0.577350 1.500000
328 1 0.500000 0.288675 1.500000
329 1 1.000000 0.000000 1.000000
330 1 1.500000 0.866025 1.000000
331 1 1.000000 -0.577350 1.500000
332 1 1.500000 0.288675 1.500000
333 1 2.000000 0.000000 1.000000
334 1 2.500000 0.866025 1.000000
335 1 2.000000 -0.577350 1.500000
336 1 2.500000 0.288675 1.500000
337 1 3.000000 0.000000 1.000000
338 1 3.500000 0.866025 1.000000
339 1 3.000000 -0.577350 1.500000
340 1 3.500000 0.288675 1.500000
341 1 4.000000 0.000000 1.000000
342 1 4.500000 0.866025 1.000000
343 1 4.000000 -0.577350 1.500000
344 1 4.500000 0.288675 1.500000
345 1 5.000000 0.000000 1.000000
346 1 5.500000 0.866025 1.000000
347 1 5.000000 -0.577350 1.500000
348 1 5.500000 0.288675 1.500000
349 1 6.000000 0.000000 1.000000
350 1 6.500000 0.866025 1.000000
351 1 6.000000 -0.577350 1.500000
352 1 6.500000 0.288675 1.500000
353 1 7.000000 0.000000 1.000000
354 1 7.500000 0.866025 1.000000
355 1 7.000000 -0.577350 1.500000
356 1 7.500000 0.288675 1.500000
357 1 8.000000 0.000000 1.000000
358 1 8.500000 0.866025 1.000000
359 1 8.000000 -0.577350 1.500000
360 1 8.500000 0.288675 1.500000
361 1 0.000000 1.732051 1.000000
362 1 0.500000 2.598076 1.000000
363 1 0.000000 1.154701 1.500000
364 1 0.500000 2.020726 1.500000
365 1 1.000000 1.732051 1.000000
366 1 1.500000 2.598076 1.000000
367 1 1.000000 1.154701 1.500000
368 1 1.500000 2.020726 1.500000
369 1 2.000000 1.732051 1.000000
370 1 2.500000 2.598076 1.000000
371 1 2.000000 1.154701 1.500000
372 1 2.500000 2.020726 1.500000
373 1 3.000000 1.732051 1.000000
374 1 3.500000 2.598076 1.000000
375 1 3.000000 1.154701 1.500000
376 1 3.500000 2.020726 1.500000
377 1 4.000000 1.732051 1.000000
378 1 4.500000 2.598076 1.000000
379 1 4.000000 1.154701 1.500000
380 1 4.500000 2.020726 1.500000
381 1 5.000000 1.732051 1.000000
382 1 5.500000 2.598076 1.000000
383 1 5.000000 1.154701 1.500000
384 1 5.500000 2.020726 1.500000
385 1 6.000000 1.732051 1.000000
386 1 6.500000 2.598076 1.000000
387 1 6.000000 1.154701 1.500000
388 1 6.500000 2.020726 1.500000
389 1 7.000000 1.732051 1.000000
390 1 7.500000 2.598076 1.000000
391 1 7.000000 1.154701 1.500000
392 1 7.500000 2.020726 1.500000
393 1 8.000000 1.732051 1.000000
394 1 8.500000 2.598076 1.000000
395 1 8.000000 1.154701 1.500000
396 1 8.500000 2.020726 1.500000
397 1 0.000000 3.464102 1.000000
398 1 0.500000 4.330127 1.000000
399 1 0.000000 2.886751 1.500000
400 1 0.500000 3.752777 1.500000
401 1 1.000000 3.464102 1.000000
402 1 1.500000 4.330127 1.000000
403 1 1.000000 2.886751 1.500000
404 1 1.500000 3.752777 1.500000
405 1 2.000000 3.464102 1.000000
406 1 2.500000 4.330127 1.000000
407 1 2.000000 2.886751 1.500000
408 1 2.500000 3.752777 1.500000
409 1 3.000000 3.464102 1.000000
410 1 3.500000 4.330127 1.000000
411 1 3.000000 2.886751 1.500000
412 1 3.500000 3.752777 1.500000
413 1 4.000000 3.464102 1.000000
414 1 4.500000 4.330127 1.000000
415 1 4.000000 2.886751 1.500000
416 1 4.500000 3.752777 1.500000
417 1 5.000000 3.464102 1.000000
418 1 5.500000 4.330127 1.000000
419 1 5.000000 2.886751 1.500000
420 1 5.500000 3.752777 1.500000
421 1 6.000000 3.464102 1.000000
422 1 6.500000 4.330127 1.000000
423 1 6.000000 2.886751 1.500000
424 1 6.500000 3.752777 1.500000
425 1 7.000000 3.464102 1.000000
426 1 7.500000 4.330127 1.000000
427 1 7.000000 2.886751 1.500000
428 1 7.500000 3.752777 1.500000
429 1 8.000000 3.464102 1.000000
430 1 8.500000 4.330127 1.000000
431 1 8.000000 2.886751 1.500000
432 1 8.500000 3.752777 1.500000
433 1 0.000000 5.196152 1.000000
434 1 0.500000 6.062178 1.000000
435 1 0.000000 4.618802 1.500000
436 1 0.500000 5.484828 1.500000
437 1 1.000000 5.196152 1.000000
438 1 1.500000 6.062178 1.000000
439 1 1.000000 4.618802 1.500000
440 1 1.500000 5.484828 1.500000
441 1 2.000000 5.196152 1.000000
442 1 2.500000 6.062178 1.000000
443 1 2.000000 4.618802 1.500000
444 1 2.500000 5.484828 1.500000
445 1 3.000000 5.196152 1.000000
446 1 3.500000 6.062178 1.000000
447 1 3.000000 4.618802 1.500000
448 1 3.500000 5.484828 1.500000
449 1 4.000000 5.196152 1.000000
450 1 4.500000 6.062178 1.000000
451 1 4.000000 4.618802 1.500000
452 1 4.500000 5.484828 1.500000
453 1 5.000000 5.196152 1.000000
454 1 5.500000 6.062178 1.000000
455 1 5.000000 4.618802 1.500000
456 1 5.500000 5.484828 1.500000
457 1 6.000000 5.196152 1.000000
458 1 6.500000 6.062178 1.000000
459 1 6.000000 4.618802 1.500000
460 1 6.500000 5.484828 1.500000
461 1 7.000000 5.196152 1.000000
462 1 7.500000 6.062178 1.000000
463 1 7.000000 4.618802 1.500000
464 1 7.500000 5.484828 1.500000
465 1 8.000000 5.196152 1.000000
466 1 8.500000 6.062178 1.000000
467 1 8.000000 4.618802 1.500000
468 1 8.500000 5.484828 1.500000
469 1 0.000000 6.928203 1.000000
470 1 0.500000 7.794229 1.000000
471 1 0.000000 6.350853 1.500000
472 1 0.500000 7.216878 1.500000
473 1 1.000000 6.928203 1.000000
474 1 1.500000 7.794229 1.000000
475 1 1.000000 6.350853 1.500000
476 1 1.500000 7.216878 1.500000
477 1 2.000000 6.928203 1.000000
478 1 2.500000 7.794229 1.000000
479 1 2.000000 6.350853 1.500000
480 1 2.500000 7.216878 1.500000
481 1 3.000000 6.928203 1.000000
482 1 3.500000 7.794229 1.000000
483 1 3.000000 6.350853 1.500000
484 1 3.500000 7.216878 1.500000
485 1 4.000000 6.928203 1.000000
486 1 4.500000 7.794229 1.000000
487 1 4.000000 6.350853 1.500000
488 1 4.500000 7.216878 1.500000
489 1 5.000000 6.928203 1.000000
490 1 5.500000 7.794229 1.000000
491 1 5.000000 6.350853 1.500000
492 1 5.500000 7.216878 1.500000
493 1 6.000000 6.928203 1.000000
494 1 6.500000 7.794229 1.000000
495 1 6.000000 6.350853 1.500000
496 1 6.500000 7.216878 1.500000
497 1 7.000000 6.928203 1.000000
498 1 7.500000 7.794229 1.000000
499 1 7.000000 6.350853 1.500000
500 1 7.500000 7.216878 1.500000
501 1 8.000000 6.928203 1.000000
502 1 8.500000 7.794229 1.000000
503 1 8.000000 6.350853 1.500000
504 1 8.500000 7.216878 1.500000
505 1 0.000000 8.660254 1.000000
506 1 0.500000 9.526279 1.000000
507 1 0.000000 8.082904 1.500000
508 1 0.500000 8.948929 1.500000
509 1 1.000000 8.660254 1.000000
510 1 1.500000 9.526279 1.000000
511 1 1.000000 8.082904 1.500000
512 1 1.500000 8.948929 1.500000
513 1 2.000000 8.660254 1.000000
514 1 2.500000 9.526279 1.000000
515 1 2.000000 8.082904 1.500000
516 1 2.500000 8.948929 1.500000
517 1 3.000000 8.660254 1.000000
518 1 3.500000 9.526279 1.000000
519 1 3.000000 8.082904 1.500000
520 1 3.500000 8.948929 1.500000
521 1 4.000000 8.660254 1.000000
522 1 4.500000 9.526279 1.000000
523 1 4.000000 8.082904 1.500000
524 1 4.500000 8.948929 1.500000
525 1 5.000000 8.660254 1.000000
526 1 5.500000 9.526279 1.000000
527 1 5.000000 8.082904 1.500000
528 1 5.500000 8.948929 1.500000
529 1 6.000000 8.660254 1.000000
530 1 6.500000 9.526279 1.000000
531 1 6.000000 8.082904 1.500000
532 1 6.500000 8.948929 1.500000
533 1 7.000000 8.660254 1.000000
534 1 7.500000 9.526279 1.000000
535 1 7.000000 8.082904 1.500000
536 1 7.500000 8.948929 1.500000
537 1 8.000000 8.660254 1.000000
538 1 8.500000 9.526279 1.000000
539 1 8.000000 8.082904 1.500000
540 1 8.500000 8.948929 1.500000
541 1 0.000000 10.392305 1.000000
542 1 0.500000 11.258330 1.000000
543 1 0.000000 9.814955 1.500000
544 1 0.500000 10.680980 1.500000
545 1 1.000000 10.392305 1.000000
546 1 1.500000 11.258330 1.000000
547 1 1.000000 9.814955 1.500000
548 1 1.500000 10.680980 1.500000
549 1 2.000000 10.392305 1.000000
550 1 2.500000 11.258330 1.000000
551 1 2.000000 9.814955 1.500000
552 1 2.500000 10.680980 1.500000
553 1 3.000000 10.392305 1.000000
554 1 3.500000 11.258330 1.000000
555 1 3.000000 9.814955 1.500000
556 1 3.500000 10.680980 1.500000
557 1 4.000000 10.392305 1.000000
558 1 4.500000 11.258330 1.000000
559 1 4.000000 9.814955 1.500000
560 1 4.500000 10.680980 1.500000
561 1 5.000000 10.392305 1.000000
562 1 5.500000 11.258330 1.000000
563 1 5.000000 9.814955 1.500000
564 1 5.500000 10.680980 1.500000
565 1 6.000000 10.392305 1.000000
566 1 6.500000 11.258330 1.000000
567 1 6.000000 9.814955 1.500000
568 1 6.500000 10.680980 1.500000
569 1 7.000000 10.392305 1.000000
570 1 7.500000 11.258330 1.000000
571 1 7.000000 9.814955 1.500000
572 1 7.500000 10.680980 1.500000
573 1 8.000000 10.392305 1.000000
574 1 8.500000 11.258330 1.000000
575 1 8.000000 9.814955 1.500000
576 1 8.500000 10.680980 1.500000
577 1 0.000000 12.124356 1.000000
578 1 0.500000 12.990381 1.000000
579 1 0.000000 11.547005 1.500000
580 1 0.500000 12.413031 1.500000
581 1 1.000000 12.124356 1.000000
582 1 1.500000 12.990381 1.000000
583 1 1.000000 11.547005 1.500000
584 1 1.500000 12.413031 1.500000
585 1 2.000000 12.124356 1.000000
586 1 2.500000 12.990381 1.000000
587 1 2.000000 11.547005 1.500000
588 1 2.500000 12.413031 1.500000
589 1 3.000000 12.124356 1.000000
590 1 3.500000 12.990381 1.000000
591 1 3.000000 11.547005 1.500000
592 1 3.500000 12.413031 1.500000
593 1 4.000000 12.124356 1.000000
594 1 4.500000 12.990381 1.000000
595 1 4.000000 11.547005 1.500000
596 1 4.500000 12.413031 1.500000
597 1 5.000000 12.124356 1.000000
598 1 5.500000 12.990381 1.000000
599 1 5.000000 11.547005 1.500000
600 1 5.500000 12.413031 1.500000
601 1 6.000000 12.124356 1.000000
602 1 6.500000 12.990381 1.000000
603 1 6.000000 11.547005 1.500000
604 1 6.500000 12.413031 1.500000
605 1 7.000000 12.124356 1.000000
606 1 7.500000 12.990381 1.000000
607 1 7.000000 11.547005 1.500000
608 1 7.500000 12.413031 1.500000
609 1 8.000000 12.124356 1.000000
610 1 8.500000 12.990381 1.000000
611 1 8.000000 11.547005 1.500000
612 1 8.500000 12.413031 1.500000
613 1 0.000000 13.856406 1.000000
614 1 0.500000 14.722432 1.000000
615 1 0.000000 13.279056 1.500000
616 1 0.500000 14.145082 1.500000
617 1 1.000000 13.856406 1.000000
618 1 1.500000 14.722432 1.000000
619 1 1.000000 13.279056 1.500000
620 1 1.500000 14.145082 1.500000
621 1 2.000000 13.856406 1.000000
622 1 2.500000 14.722432 1.000000
623 1 2.000000 13.279056 1.500000
624 1 2.500000 14.145082 1.500000
625 1 3.000000 13.856406 1.000000
626 1 3.500000 14.722432 1.000000
627 1 3.000000 13.279056 1.500000
628 1 3.500000 14.145082 1.500000
629 1 4.000000 13.856406 1.000000
630 1 4.500000 14.722432 1.000000
631 1 4.000000 13.279056 1.500000
632 1 4.500000 14.145082 1.500000
633 1 5.000000 13.856406 1.000000
634 1 5.500000 14.722432 1.000000
635 1 5.000000 13.279056 1.500000
636 1 5.500000 14.145082 1.500000
637 1 6.000000 13.856406 1.000000
638 1 6.500000 14.722432 1.000000
639 1 6.000000 13.279056 1.500000
640 1 6.500000 14.145082 1.500000
641 1 7.000000 13.856406 1.000000
642 1 7.500000 14.722432 1.000000
643 1 7.000000 13.279056 1.500000
644 1 7.500000 14.145082 1.500000
645 1 8.000000 13.856406 1.000000
646 1 8.500000 14.722432 1.000000
647 1 8.000000 13.279056 1.500000
648 1 8.500000 14.145082 1.500000
649 1 0.000000 0.000000 2.000000
650 1 0.500000 0.866025 2.000000
651 1 0.000000 -0.577350 2.500000
652 1 0.500000 0.288675 2.500000
653 1 1.000000 0.000000 2.000000
654 1 1.500000 0.866025 2.000000
655 1 1.000000 -0.577350 2.500000
656 1 1.500000 0.288675 2.500000
657 1 2.000000 0.000000 2.000000
658 1 2.500000 0.866025 2.000000
659 1 2.000000 -0.577350 2.500000
660 1 2.500000 0.288675 2.500000
661 1 3.000000 0.000000 2.000000
662 1 3.500000 0.866025 2.000000
663 1 3.000000 -0.577350 2.500000
664 1 3.500000 0.288675 2.500000
665 1 4.000000 0.000000 2.000000
666 1 4.500000 0.866025 2.000000
667 1 4.000000 -0.577350 2.500000
668 1 4.500000 0.288675 2.500000
669 1 5.000000 0.000000 2.000000
670 1 5.500000 0.866025 2.000000
671 1 5.000000 -0.577350 2.500000
672 1 5.500000 0.288675 2.500000
673 1 6.000000 0.000000 2.000000
674 1 6.500000 0.866025 2.000000
675 1 6.000000 -0.577350 2.500000
676 1 6.500000 0.288675 2.500000
677 1 7.000000 0.000000 2.000000
678 1 7.500000 0.866025 2.000000
679 1 7.000000 -0.577350 2.500000
680 1 7.500000 0.288675 2.500000
681 1 8.000000 0.000000 2.000000
682 1 8.500000 0.866025 2.000000
683 1 8.000000 -0.577350 2.500000
684 1 8.500000 0.288675 2.500000
685 1 0.000000 1.732051 2.000000
686 1 0.500000 2.598076 2.000000
687 1 0.000000 1.154701 2.500000
688 1 0.500000 2.020726 2.500000
689 1 1.000000 1.732051 2.000000
690 1 1.500000 2.598076 2.000000
691 1 1.000000 1.154701 2.500000
692 1 1.500000 2.020726 2.500000
693 1 2.000000 1.732051 2.000000
694 1 2.500000 2.598076 2.000000
695 1 2.000000 1.154701 2.500000
696 1 2.500000 2.020726 2.500000
697 1 3.000000 1.732051 2.000000
698 1 3.500000 2.598076 2.000000
699 1 3.000000 1.154701 2.500000
700 1 3.500000 2.020726 2.500000
701 1 4.000000 1.732051 2.000000
702 1 4.500000 2.598076 2.000000
703 1 4.000000 1.154701 2.500000
704 1 4.500000 2.020726 2.500000
705 1 5.000000 1.732051 2.000000
706 1 5.500000 2.598076 2.000000
707 1 5.000000 1.154701 2.500000
708 1 5.500000 2.020726 2.500000
709 1 6.000000 1.732051 2.000000
710 1 6.500000 2.598076 2.000000
711 1 6.000000 1.154701 2.500000
712 1 6.500000 2.020726 2.500000
713 1 7.000000 1.732051 2.000000
714 1 7.500000 2.598076 2.000000
715 1 7.000000 1.154701 2.500000
716 1 7.500000 2.020726 2.500000
717 1 8.000000 1.732051 2.000000
718 1 8.500000 2.598076 2.000000
719 1 8.000000 1.154701 2.500000
720 1 8.500000 2.020726 2.500000
721 1 0.000000 3.464102 2.000000
722 1 0.500000 4.330127 2.000000
723 1 0.000000 2.886751 2.500000
724 1 0.500000 3.752777 2.500000
725 1 1.000000 3.464102 2.000000
726 1 1.500000 4.330127 2.000000
727 1 1.000000 2.886751 2.500000
728 1 1.500000 3.752777 2.500000
729 1 2.000000 3.464102 2.000000
730 1 2.500000 4.330127 2.000000
731 1 2.000000 2.886751 2.500000
732 1 2.500000 3.752777 2.500000
733 1 3.000000 3.464102 2.000000
734 1 3.500000 4.330127 2.000000
735 1 3.000000 2.886751 2.500000
736 1 3.500000 3.752777 2.500000
737 1 4.000000 3.464102 2.000000
738 1 4.500000 4.330127 2.000000
739 1 4.000000 2.886751 2.500000
740 1 4.500000 3.752777 2.500000
741 1 5.000000 3.464102 2.000000
742 1 5.500000 4.330127 2.000000
743 1 5.000000 2.886751 2.500000
744 1 5.500000 3.752777 2.500000
745 1 6.000000 3.464102 2.000000
746 1 6.500000 4.330127 2.000000
747 1 6.000000 2.886751 2.500000
748 1 6.500000 3.752777 2.500000
749 1 7.000000 3.464102 2.000000
750 1 7.500000 4.330127 2.000000
751 1 7.000000 2.886751 2.500000
752 1 7.500000 3.752777 2.500000
753 1 8.000000 3.464102 2.000000
754 1 8.500000 4.330127 2.000000
755 1 8.000000 2.886751 2.500000
756 1 8.500000 3.752777 2.500000
757 1 0.000000 5.196152 2.000000
758 1 0.500000 6.062178 2.000000
759 1 0.000000 4.618802 2.500000
760 1 0.500000 5.484828 2.500000
761 1 1.000000 5.196152 2.000000
762 1 1.500000 6.062178 2.000000
763 1 1.000000 4.618802 2.500000
764 1 1.500000 5.484828 2.500000
765 1 2.000000 5.196152 2.000000
766 1 2.500000 6.062178 2.000000
767 1 2.000000 4.618802 2.500000
768 1 2.500000 5.484828 2.500000
769 1 3.000000 5.196152 2.000000
770 1 3.500000 6.062178 2.000000
771 1 3.000000 4.618802 2.500000
772 1 3.500000 5.484828 2.500000
773 1 4.000000 5.196152 2.000000
774 1 4.500000 6.062178 2.000000
775 1 4.000000 4.618802 2.500000
776 1 4.500000 5.484828 2.500000
777 1 5.000000 5.196152 2.000000
778 1 5.500000 6.062178 2.000000
779 1 5.000000 4.618802 2.500000
780 1 5.500000 5.484828 2.500000
781 1 6.000000 5.196152 2.000000
782 1 6.500000 6.062178 2.000000
783 1 6.000000 4.618802 2.500000
784 1 6.500000 5.484828 2.500000
785 1 7.000000 5.196152 2.000000
786 1 7.500000 6.062178 2.000000
787 1 7.000000 4.618802 2.500000
788 1 7.500000 5.484828 2.500000
789 1 8.000000 5.196152 2.000000
790 1 8.500000 6.062178 2.000000
791 1 8.000000 4.618802 2.500000
792 1 8.500000 5.484828 2.500000
793 1 0.000000 6.928203 2.000000
794 1 0.500000 7.794229 2.000000
795 1 0.000000 6.350853 2.500000
796 1 0.500000 7.216878 2.500000
797 1 1.000000 6.928203 2.000000
798 1 1.500000 7.794229 2.000000
799 1 1.000000 6.350853 2.500000
800 1 1.500000 7.216878 2.500000
801 1 2.000000 6.928203 2.000000
802 1 2.500000 7.794229 2.000000
803 1 2.000000 6.350853 2.500000
804 1 2.500000 7.216878 2.500000
805 1 3.000000 6.928203 2.000000
806 1 3.500000 7.794229 2.000000
807 1 3.000000 6.350853 2.500000
808 1 3.500000 7.216878 2.500000
809 1 4.000000 6.928203 2.000000
810 1 4.500000 7.794229 2.000000
811 1 4.000000 6.350853 2.500000
812 1 4.500000 7.216878 2.500000
813 1 5.000000 6.928203 2.000000
814 1 5.500000 7.794229 2.000000
815 1 5.000000 6.350853 2.500000
816 1 5.500000 7.216878 2.500000
817 1 6.000000 6.928203 2.000000
818 1 6.500000 7.794229 2.000000
819 1 6.000000 6.350853 2.500000
820 1 6.500000 7.216878 2.500000
821 1 7.000000 6.928203 2.000000
822 1 7.500000 7.794229 2.000000
823 1 7.000000 6.350853 2.500000
824 1 7.500000 7.216878 2.500000
825 1 8.000000 6.928203 2.000000
826 1 8.500000 7.794229 2.000000
827 1 8.000000 6.350853 2.500000
828 1 8.500000 7.216878 2.500000
829 1 0.000000 8.660254 2.000000
830 1 0.500000 9.526279 2.000000
831 1 0.000000 8.082904 2.500000
832 1 0.500000 8.948929 2.500000
833 1 1.000000 8.660254 2.000000
834 1 1.500000 9.526279 2.000000
835 1 1.000000 8.082904 2.500000
836 1 1.500000 8.948929 2.500000
837 1 2.000000 8.660254 2.000000
838 1 2.500000 9.526279 2.000000
839 1 2.000000 8.082904 2.500000
840 1 2.500000 8.948929 2.500000
841 1 3.000000 8.660254 2.000000
842 1 3.500000 9.526279 2.000000
843 1 3.000000 8.082904 2.500000
844 1 3.500000 8.948929 2.500000
845 1 4.000000 8.660254 2.000000
846 1 4.500000 9.526279 2.000000
847 1 4.000000 8.082904 2.500000
848 1 4.500000 8.948929 2.500000
849 1 5.000000 8.660254 2.000000
850 1 5.500000 9.526279 2.000000
851 1 5.000000 8.082904 2.500000
852 1 5.500000 8.948929 2.500000
853 1 6.000000 8.660254 2.000000
854 1 6.500000 9.526279 2.000000
855 1 6.000000 8.082904 2.500000
856 1 6.500000 8.948929 2.500000
857 1 7.000000 8.660254 2.000000
858 1 7.500000 9.526279 2.000000
859 1 7.000000 8.082904 2.500000
860 1 7.500000 8.948929 2.500000
861 1 8.000000 8.660254 2.000000
862 1 8.500000 9.526279 2.000000
863 1 8.000000 8.082904 2.500000
864 1 8.500000 8.948929 2.500000
865 1 0.000000 10.392305 2.000000
866 1 0.500000 11.258330 2.000000
867 1 0.000000 9.814955 2.500000
868 1 0.500000 10.680980 2.500000
869 1 1.000000 10.392305 2.000000
870 1 1.500000 11.258330 2.000000
871 1 1.000000 9.814955 2.500000
872 1 1.500000 10.680980 2.500000
873 1 2.000000 10.392305 2.000000
874 1 2.500000 11.258330 2.000000
875 1 2.000000 9.814955 2.500000
876 1 2.500000 10.680980 2.500000
877 1 3.000000 10.392305 2.000000
878 1 3.500000 11.258330 2.000000
879 1 3.000000 9.814955 2.500000
880 1 3.500000 10.680980 2.500000
881 1 4.000000 10.392305 2.000000
882 1 4.500000 11.258330 2.000000
883 1 4.000000 9.814955 2.500000
884 1 4.500000 10.680980 2.500000
885 1 5.000000 10.392305 2.000000
886 1 5.500000 11.258330 2.000000
887 1 5.000000 9.814955 2.500000
888 1 5.500000 10.680980 2.500000
889 1 6.000000 10.392305 2.000000
890 1 6.500000 11.258330 2.000000
891 1 6.000000 9.814955 2.500000
892 1 6.500000 10.680980 2.500000
893 1 7.000000 10.392305 2.000000
894 1 7.500000 11.258330 2.000000
895 1 7.000000 9.814955 2.500000
896 1 7.500000 10.680980 2.500000
897 1 8.000000 10.392305 2.000000
898 1 8.500000 11.258330 2.000000
899 1 8.000000 9.814955 2.500000
900 1 8.500000 10.680980 2.500000