ITEM: TIMESTEP
0
ITEM: NUMBER OF ATOMS
2916 
ITEM: BOX BOUNDS
0.000000   9.000000 xlo xhi
0.000000   9.000000 ylo yhi
0.000000   9.000000 zlo zhi
ITEM: ATOMS id x y z cell
1 0.000000 0.000000 0.000000 1
2 0.000000 0.500000 0.500000 1
3 0.500000 0.000000 0.500000 1
4 0.500000 0.500000 0.000000 1
5 1.000000 0.000000 0.000000 1
6 1.000000 0.500000 0.500000 1
7 1.500000 0.000000 0.500000 1
8 1.500000 0.500000 0.000000 1
9 2.000000 0.000000 0.000000 1
10 2.000000 0.500000 0.500000 1
11 2.500000 0.000000 0.500000 1
12 2.500000 0.500000 0.000000 1
13 3.000000 0.000000 0.000000 4
14 3.000000 0.500000 0.500000 4
15 3.500000 0.000000 0.500000 4
16 3.500000 0.500000 0.000000 4
17 4.000000 0.000000 0.000000 4
18 4.000000 0.500000 0.500000 4
19 4.500000 0.000000 0.500000 4
20 4.500000 0.500000 0.000000 4
21 5.000000 0.000000 0.000000 4
22 5.000000 0.500000 0.500000 4
23 5.500000 0.000000 0.500000 4
24 5.500000 0.500000 0.000000 4
25 6.000000 0.000000 0.000000 7
26 6.000000 0.500000 0.500000 7
27 6.500000 0.000000 0.500000 7
28 6.500000 0.500000 0.000000 7
29 7.000000 0.000000 0.000000 7
30 7.000000 0.500000 0.500000 7
31 7.500000 0.000000 0.500000 7
32 7.500000 0.500000 0.000000 7
33 8.000000 0.000000 0.000000 7
34 8.000000 0.500000 0.500000 7
35 8.500000 0.000000 0.500000 7
36 8.500000 0.500000 0.000000 7
37 0.000000 1.000000 0.000000 1
38 0.000000 1.500000 0.500000 1
39 0.500000 1.000000 0.500000 1
40 0.500000 1.500000 0.000000 1
41 1.000000 1.000000 0.000000 1
42 1.000000 1.500000 0.500000 1
43 1.500000 1.000000 0.500000 1
44 1.500000 1.500000 0.000000 1
45 2.000000 1.000000 0.000000 1
46 2.000000 1.500000 0.500000 1
47 2.500000 1.000000 0.500000 1
48 2.500000 1.500000 0.000000 1
49 3.000000 1.000000 0.000000 4
50 3.000000 1.500000 0.500000 4
51 3.500000 1.000000 0.500000 4
52 3.500000 1.500000 0.000000 4
53 4.000000 1.000000 0.000000 4
54 4.000000 1.500000 0.500000 4
55 4.500000 1.000000 0.500000 4
56 4.500000 1.500000 0.000000 4
57 5.000000 1.000000 0.000000 4
58 5.000000 1.500000 0.500000 4
59 5.500000 1.000000 0.500000 4
60 5.500000 1.500000 0.000000 4
61 6.000000 1.000000 0.000000 7
62 6.000000 1.500000 0.500000 7
63 6.500000 1.000000 0.500000 7
64 6.500000 1.500000 0.000000 7
65 7.000000 1.000000 0.000000 7
66 7.000000 1.500000 0.500000 7
67 7.500000 1.000000 0.500000 7
68 7.500000 1.500000 0.000000 7
69 8.000000 1.000000 0.000000 7
70 8.000000 1.500000 0.500000 7
71 8.500000 1.000000 0.500000 7
72 8.500000 1.500000 0.000000 7
73 0.000000 2.000000 0.000000 1
74 0.000000 2.500000 0.500000 1
75 0.500000 2.000000 0.500000 1
76 0.500000 2.500000 0.000000 1
77 1.000000 2.000000 0.000000 1
78 1.000000 2.500000 0.500000 1
79 1.500000 2.000000 0.500000 1
80 1.500000 2.500000 0.000000 1
81 2.000000 2.000000 0.000000 1
82 2.000000 2.500000 0.500000 1
83 2.500000 2.000000 0.500000 1
84 2.500000 2.500000 0.000000 1
85 3.000000 2.000000 0.000000 4
86 3.000000 2.500000 0.500000 4
87 3.500000 2.000000 0.500000 4
88 3.500000 2.500000 0.000000 4
89 4.000000 2.000000 0.000000 4
90 4.000000 2.500000 0.500000 4
91 4.500000 2.000000 0.500000 4
92 4.500000 2.500000 0.000000 4
93 5.000000 2.000000 0.000000 4
94 5.000000 2.500000 0.500000 4
95 5.500000 2.000000 0.500000 4
96 5.500000 2.500000 0.000000 4
97 6.000000 2.000000 0.000000 7
98 6.000000 2.500000 0.500000 7
99 6.500000 2.000000 0.500000 7
100 6.500000 2.500000 0.000000 7
101 7.000000 2.000000 0.000000 7
102 7.000000 2.500000 0.500000 7
103 7.500000 2.000000 0.500000 7
104 7.500000 2.500000 0.000000 7
105 8.000000 2.000000 0.000000 7
106 8.000000 2.500000 0.500000 7
107 8.500000 2.000000 0.500000 7
108 8.500000 2.500000 0.000000 7
109 0.000000 3.000000 0.000000 2
110 0.000000 3.500000 0.500000 2
111 0.500000 3.000000 0.500000 2
112 0.500000 3.500000 0.000000 2
113 1.000000 3.000000 0.000000 2
114 1.000000 3.500000 0.500000 2
115 1.500000 3.000000 0.500000 2
116 1.500000 3.500000 0.000000 2
117 2.000000 3.000000 0.000000 2
118 2.000000 3.500000 0.500000 2
119 2.500000 3.000000 0.500000 2
120 2.500000 3.500000 0.000000 2
121 3.000000 3.000000 0.000000 5
122 3.000000 3.500000 0.500000 5
123 3.500000 3.000000 0.500000 5
124 3.500000 3.500000 0.000000 5
125 4.000000 3.000000 0.000000 5
126 4.000000 3.500000 0.500000 5
127 4.500000 3.000000 0.500000 5
128 4.500000 3.500000 0.000000 5
129 5.000000 3.000000 0.000000 5
130 5.000000 3.500000 0.500000 5
131 5.500000 3.000000 0.500000 5
132 5.500000 3.500000 0.000000 5
133 6.000000 3.000000 0.000000 8
134 6.000000 3.500000 0.500000 8
135 6.500000 3.000000 0.500000 8
136 6.500000 3.500000 0.000000 8
137 7.000000 3.000000 0.000000 8
138 7.000000 3.500000 0.500000 8
139 7.500000 3.000000 0.500000 8
140 7.500000 3.500000 0.000000 8
141 8.000000 3.000000 0.000000 8
142 8.000000 3.500000 0.500000 8
143 8.500000 3.000000 0.500000 8
144 8.500000 3.500000 0.000000 8
145 0.000000 4.000000 0.000000 2
146 0.000000 4.500000 0.500000 2
147 0.500000 4.000000 0.500000 2
148 0.500000 4.500000 0.000000 2
149 1.000000 4.000000 0.000000 2
150 1.000000 4.500000 0.500000 2
151 1.500000 4.000000 0.500000 2
152 1.500000 4.500000 0.000000 2
153 2.000000 4.000000 0.000000 2
154 2.000000 4.500000 0.500000 2
155 2.500000 4.000000 0.500000 2
156 2.500000 4.500000 0.000000 2
157 3.000000 4.000000 0.000000 5
158 3.000000 4.500000 0.500000 5
159 3.500000 4.000000 0.500000 5
160 3.500000 4.500000 0.000000 5
161 4.000000 4.000000 0.000000 5
162 4.000000 4.500000 0.500000 5
163 4.500000 4.000000 0.500000 5
164 4.500000 4.500000 0.000000 5
165 5.000000 4.000000 0.000000 5
166 5.000000 4.500000 0.500000 5
167 5.500000 4.000000 0.500000 5
168 5.500000 4.500000 0.000000 5
169 6.000000 4.000000 0.000000 8
170 6.000000 4.500000 0.500000 8
171 6.500000 4.000000 0.500000 8
172 6.500000 4.500000 0.000000 8
173 7.000000 4.000000 0.000000 8
174 7.000000 4.500000 0.500000 8
175 7.500000 4.000000 0.500000 8
176 7.500000 4.500000 0.000000 8
177 8.000000 4.000000 0.000000 8
178 8.000000 4.500000 0.500000 8
179 8.500000 4.000000 0.500000 8
180 8.500000 4.500000 0.000000 8
181 0.000000 5.000000 0.000000 2
182 0.000000 5.500000 0.500000 2
183 0.500000 5.000000 0.500000 2
184 0.500000 5.500000 0.000000 2
185 1.000000 5.000000 0.000000 2
186 1.000000 5.500000 0.500000 2
187 1.500000 5.000000 0.500000 2
188 1.500000 5.500000 0.000000 2
189 2.000000 5.000000 0.000000 2
190 2.000000 5.500000 0.500000 2
191 2.500000 5.000000 0.500000 2
192 2.500000 5.500000 0.000000 2
193 3.000000 5.000000 0.000000 5
194 3.000000 5.500000 0.500000 5
195 3.500000 5.000000 0.500000 5
196 3.500000 5.500000 0.000000 5
197 4.000000 5.000000 0.000000 5
198 4.000000 5.500000 0.500000 5
199 4.500000 5.000000 0.500000 5
200 4.500000 5.500000 0.000000 5
201 5.000000 5.000000 0.000000 5
202 5.000000 5.500000 0.500000 5
203 5.500000 5.000000 0.500000 5
204 5.500000 5.500000 0.000000 5
205 6.000000 5.000000 0.000000 8
206 6.000000 5.500000 0.500000 8
207 6.500000 5.000000 0.500000 8
208 6.500000 5.500000 0.000000 8
209 7.000000 5.000000 0.000000 8
210 7.000000 5.500000 0.500000 8
211 7.500000 5.000000 0.500000 8
212 7.500000 5.500000 0.000000 8
213 8.000000 5.000000 0.000000 8
214 8.000000 5.500000 0.500000 8
215 8.500000 5.000000 0.500000 8
216 8.500000 5.500000 0.000000 8
217 0.000000 6.000000 0.000000 3
218 0.000000 6.500000 0.500000 3
219 0.500000 6.000000 0.500000 3
220 0.500000 6.500000 0.000000 3
221 1.000000 6.000000 0.000000 3
222 1.000000 6.500000 0.500000 3
223 1.500000 6.000000 0.500000 3
224 1.500000 6.500000 0.000000 3
225 2.000000 6.000000 0.000000 3
226 2.000000 6.500000 0.500000 3
227 2.500000 6.000000 0.500000 3
228 2.500000 6.500000 0.000000 3
229 3.000000 6.000000 0.000000 6
230 3.000000 6.500000 0.500000 6
231 3.500000 6.000000 0.500000 6
232 3.500000 6.500000 0.000000 6
233 4.000000 6.000000 0.000000 6
234 4.000000 6.500000 0.500000 6
235 4.500000 6.000000 0.500000 6
236 4.500000 6.500000 0.000000 6
237 5.000000 6.000000 0.000000 6
238 5.000000 6.500000 0.500000 6
239 5.500000 6.000000 0.500000 6
240 5.500000 6.500000 0.000000 6
241 6.000000 6.000000 0.000000 9
242 6.000000 6.500000 0.500000 9
243 6.500000 6.000000 0.500000 9
244 6.500000 6.500000 0.000000 9
245 7.000000 6.000000 0.000000 9
246 7.000000 6.500000 0.500000 9
247 7.500000 6.000000 0.500000 9
248 7.500000 6.500000 0.000000 9
249 8.000000 6.000000 0.000000 9
250 8.000000 6.500000 0.500000 9
251 8.500000 6.000000 0.500000 9
252 8.500000 6.500000 0.000000 9
253 0.000000 7.000000 0.000000 3
254 0.000000 7.500000 0.500000 3
255 0.500000 7.000000 0.500000 3
256 0.500000 7.500000 0.000000 3
257 1.000000 7.000000 0.000000 3
258 1.000000 7.500000 0.500000 3
259 1.500000 7.000000 0.500000 3
260 1.500000 7.500000 0.000000 3
261 2.000000 7.000000 0.000000 3
262 2.000000 7.500000 0.500000 3
263 2.500000 7.000000 0.500000 3
264 2.500000 7.500000 0.000000 3
265 3.000000 7.000000 0.000000 6
266 3.000000 7.500000 0.500000 6
267 3.500000 7.000000 0.500000 6
268 3.500000 7.500000 0.000000 6
269 4.000000 7.000000 0.000000 6
270 4.000000 7.500000 0.500000 6
271 4.500000 7.000000 0.500000 6
272 4.500000 7.500000 0.000000 6
273 5.000000 7.000000 0.000000 6
274 5.000000 7.500000 0.500000 6
275 5.500000 7.000000 0.500000 6
276 5.500000 7.500000 0.000000 6
277 6.000000 7.000000 0.000000 9
278 6.000000 7.500000 0.500000 9
279 6.500000 7.000000 0.500000 9
280 6.500000 7.500000 0.000000 9
281 7.000000 7.000000 0.000000 9
282 7.000000 7.500000 0.500000 9
283 7.500000 7.000000 0.500000 9
284 7.500000 7.500000 0.000000 9
285 8.000000 7.000000 0.000000 9
286 8.000000 7.500000 0.500000 9
287 8.500000 7.000000 0.500000 9
288 8.500000 7.500000 0.000000 9
289 0.000000 8.000000 0.000000 3
290 0.000000 8.500000 0.500000 3
291 0.500000 8.000000 0.500000 3
292 0.500000 8.500000 0.000000 3
293 1.000000 8.000000 0.000000 3
294 1.000000 8.500000 0.500000 3
295 1.500000 8.000000 0.500000 3
296 1.500000 8.500000 0.000000 3
297 2.000000 8.000000 0.000000 3
298 2.000000 8.500000 0.500000 3
299 2.500000 8.000000 0.500000 3
300 2.500000 8.500000 0.000000 3
301 3.000000 8.000000 0.000000 6
302 3.000000 8.500000 0.500000 6
303 3.500000 8.000000 0.500000 6
304 3.500000 8.500000 0.000000 6
305 4.000000 8.000000 0.000000 6
306 4.000000 8.500000 0.500000 6
307 4.500000 8.000000 0.500000 6
308 4.500000 8.500000 0.000000 6
309 5.000000 8.000000 0.000000 6
310 5.000000 8.500000 0.500000 6
311 5.500000 8.000000 0.500000 6
312 5.500000 8.500000 0.000000 6
313 6.000000 8.000000 0.000000 9
314 6.000000 8.500000 0.500000 9
315 6.500000 8.000000 0.500000 9
316 6.500000 8.500000 0.000000 9
317 7.000000 8.000000 0.000000 9
318 7.000000 8.500000 0.500000 9
319 7.500000 8.000000 0.500000 9
320 7.500000 8.500000 0.000000 9
321 8.000000 8.000000 0.000000 9
322 8.000000 8.500000 0.500000 9
323 8.500000 8.000000 0.500000 9
324 8.500000 8.500000 0.000000 9
325 0.000000 0.000000 1.000000 1
326 0.000000 0.500000 1.500000 1
327 0.500000 0.000000 1.500000 1
328 0.500000 0.500000 1.000000 1
329 1.000000 0.000000 1.000000 1
330 1.000000 0.500000 1.500000 1
331 1.500000 0.000000 1.500000 1
332 1.500000 0.500000 1.000000 1
333 2.000000 0.000000 1.000000 1
334 2.000000 0.500000 1.500000 1
335 2.500000 0.000000 1.500000 1
336 2.500000 0.500000 1.000000 1
337 3.000000 0.000000 1.000000 4
338 3.000000 0.500000 1.500000 4
339 3.500000 0.000000 1.500000 4
340 3.500000 0.500000 1.000000 4
341 4.000000 0.000000 1.000000 4
342 4.000000 0.500000 1.500000 4
343 4.500000 0.000000 1.500000 4
344 4.500000 0.500000 1.000000 4
345 5.000000 0.000000 1.000000 4
346 5.000000 0.500000 1.500000 4
347 5.500000 0.000000 1.500000 4
348 5.500000 0.500000 1.000000 4
349 6.000000 0.000000 1.000000 7
350 6.000000 0.500000 1.500000 7
351 6.500000 0.000000 1.500000 7
352 6.500000 0.500000 1.000000 7
353 7.000000 0.000000 1.000000 7
354 7.000000 0.500000 1.500000 7
355 7.500000 0.000000 1.500000 7
356 7.500000 0.500000 1.000000 7
357 8.000000 0.000000 1.000000 7
358 8.000000 0.500000 1.500000 7
359 8.500000 0.000000 1.500000 7
360 8.500000 0.500000 1.000000 7
361 0.000000 1.000000 1.000000 1
362 0.000000 1.500000 1.500000 1
363 0.500000 1.000000 1.500000 1
364 0.500000 1.500000 1.000000 1
365 1.000000 1.000000 1.000000 1
366 1.000000 1.500000 1.500000 1
367 1.500000 1.000000 1.500000 1
368 1.500000 1.500000 1.000000 1
369 2.000000 1.000000 1.000000 1
370 2.000000 1.500000 1.500000 1
371 2.500000 1.000000 1.500000 1
372 2.500000 1.500000 1.000000 1
373 3.000000 1.000000 1.000000 4
374 3.000000 1.500000 1.500000 4
375 3.500000 1.000000 1.500000 4
376 3.500000 1.500000 1.000000 4
377 4.000000 1.000000 1.000000 4
378 4.000000 1.500000 1.500000 4
379 4.500000 1.000000 1.500000 4
380 4.500000 1.500000 1.000000 4
381 5.000000 1.000000 1.000000 4
382 5.000000 1.500000 1.500000 4
383 5.500000 1.000000 1.500000 4
384 5.500000 1.500000 1.000000 4
385 6.000000 1.000000 1.000000 7
386 6.000000 1.500000 1.500000 7
387 6.500000 1.000000 1.500000 7
388 6.500000 1.500000 1.000000 7
389 7.000000 1.000000 1.000000 7
390 7.000000 1.500000 1.500000 7
391 7.500000 1.000000 1.500000 7
392 7.500000 1.500000 1.000000 7
393 8.000000 1.000000 1.000000 7
394 8.000000 1.500000 1.500000 7
395 8.500000 1.000000 1.500000 7
396 8.500000 1.500000 1.000000 7
397 0.000000 2.000000 1.000000 1
398 0.000000 2.500000 1.500000 1
399 0.500000 2.000000 1.500000 1
400 0.500000 2.500000 1.000000 1
401 1.000000 2.000000 1.000000 1
402 1.000000 2.500000 1.500000 1
403 1.500000 2.000000 1.500000 1
404 1.500000 2.500000 1.000000 1
405 2.000000 2.000000 1.000000 1
406 2.000000 2.500000 1.500000 1
407 2.500000 2.000000 1.500000 1
408 2.500000 2.500000 1.000000 1
409 3.000000 2.000000 1.000000 4
410 3.000000 2.500000 1.500000 4
411 3.500000 2.000000 1.500000 4
412 3.500000 2.500000 1.000000 4
413 4.000000 2.000000 1.000000 4
414 4.000000 2.500000 1.500000 4
415 4.500000 2.000000 1.500000 4
416 4.500000 2.500000 1.000000 4
417 5.000000 2.000000 1.000000 4
418 5.000000 2.500000 1.500000 4
419 5.500000 2.000000 1.500000 4
420 5.500000 2.500000 1.000000 4
421 6.000000 2.000000 1.000000 7
422 6.000000 2.500000 1.500000 7
423 6.500000 2.000000 1.500000 7
424 6.500000 2.500000 1.000000 7
425 7.000000 2.000000 1.000000 7
426 7.000000 2.500000 1.500000 7
427 7.500000 2.000000 1.500000 7
428 7.500000 2.500000 1.000000 7
429 8.000000 2.000000 1.000000 7
430 8.000000 2.500000 1.500000 7
431 8.500000 2.000000 1.500000 7
432 8.500000 2.500000 1.000000 7
433 0.000000 3.000000 1.000000 2
434 0.000000 3.500000 1.500000 2
435 0.500000 3.000000 1.500000 2
436 0.500000 3.500000 1.000000 2
437 1.000000 3.000000 1.000000 2
438 1.000000 3.500000 1.500000 2
439 1.500000 3.000000 1.500000 2
440 1.500000 3.500000 1.000000 2
441 2.000000 3.000000 1.000000 2
442 2.000000 3.500000 1.500000 2
443 2.500000 3.000000 1.500000 2
444 2.500000 3.500000 1.000000 2
445 3.000000 3.000000 1.000000 5
446 3.000000 3.500000 1.500000 5
447 3.500000 3.000000 1.500000 5
448 3.500000 3.500000 1.000000 5
449 4.000000 3.000000 1.000000 5
450 4.000000 3.500000 1.500000 5
451 4.500000 3.000000 1.500000 5
452 4.500000 3.500000 1.000000 5
453 5.000000 3.000000 1.000000 5
454 5.000000 3.500000 1.500000 5
455 5.500000 3.000000 1.500000 5
456 5.500000 3.500000 1.000000 5
457 6.000000 3.000000 1.000000 8
458 6.000000 3.500000 1.500000 8
459 6.500000 3.000000 1.500000 8
460 6.500000 3.500000 1.000000 8
461 7.000000 3.000000 1.000000 8
462 7.000000 3.500000 1.500000 8
463 7.500000 3.000000 1.500000 8
464 7.500000 3.500000 1.000000 8
465 8.000000 3.000000 1.000000 8
466 8.000000 3.500000 1.500000 8
467 8.500000 3.000000 1.500000 8
468 8.500000 3.500000 1.000000 8
469 0.000000 4.000000 1.000000 2
470 0.000000 4.500000 1.500000 2
471 0.500000 4.000000 1.500000 2
472 0.500000 4.500000 1.000000 2
473 1.000000 4.000000 1.000000 2
474 1.000000 4.500000 1.500000 2
475 1.500000 4.000000 1.500000 2
476 1.500000 4.500000 1.000000 2
477 2.000000 4.000000 1.000000 2
478 2.000000 4.500000 1.500000 2
479 2.500000 4.000000 1.500000 2
480 2.500000 4.500000 1.000000 2
481 3.000000 4.000000 1.000000 5
482 3.000000 4.500000 1.500000 5
483 3.500000 4.000000 1.500000 5
484 3.500000 4.500000 1.000000 5
485 4.000000 4.000000 1.000000 5
486 4.000000 4.500000 1.500000 5
487 4.500000 4.000000 1.500000 5
488 4.500000 4.500000 1.000000 5
489 5.000000 4.000000 1.000000 5
490 5.000000 4.500000 1.500000 5
491 5.500000 4.000000 1.500000 5
492 5.500000 4.500000 1.000000 5
493 6.000000 4.000000 1.000000 8
494 6.000000 4.500000 1.500000 8
495 6.500000 4.000000 1.500000 8
496 6.500000 4.500000 1.000000 8
497 7.000000 4.000000 1.000000 8
498 7.000000 4.500000 1.500000 8
499 7.500000 4.000000 1.500000 8
500 7.500000 4.500000 1.000000 8
501 8.000000 4.000000 1.000000 8
502 8.000000 4.500000 1.500000 8
503 8.500000 4.000000 1.500000 8
504 8.500000 4.500000 1.000000 8
505 0.000000 5.000000 1.000000 2
506 0.000000 5.500000 1.500000 2
507 0.500000 5.000000 1.500000 2
508 0.500000 5.500000 1.000000 2
509 1.000000 5.000000 1.000000 2
510 1.000000 5.500000 1.500000 2
511 1.500000 5.000000 1.500000 2
512 1.500000 5.500000 1.000000 2
513 2.000000 5.000000 1.000000 2
514 2.000000 5.500000 1.500000 2
515 2.500000 5.000000 1.500000 2
516 2.500000 5.500000 1.000000 2
517 3.000000 5.000000 1.000000 5
518 3.000000 5.500000 1.500000 5
519 3.500000 5.000000 1.500000 5
520 3.500000 5.500000 1.000000 5
521 4.000000 5.000000 1.000000 5
522 4.000000 5.500000 1.500000 5
523 4.500000 5.000000 1.500000 5
524 4.500000 5.500000 1.000000 5
525 5.000000 5.000000 1.000000 5
526 5.000000 5.500000 1.500000 5
527 5.500000 5.000000 1.500000 5
528 5.500000 5.500000 1.000000 5
529 6.000000 5.000000 1.000000 8
530 6.000000 5.500000 1.500000 8
531 6.500000 5.000000 1.500000 8
532 6.500000 5.500000 1.000000 8
533 7.000000 5.000000 1.000000 8
534 7.000000 5.500000 1.500000 8
535 7.500000 5.000000 1.500000 8
536 7.500000 5.500000 1.000000 8
537 8.000000 5.000000 1.000000 8
538 8.000000 5.500000 1.500000 8
539 8.500000 5.000000 1.500000 8
540 8.500000 5.500000 1.000000 8
541 0.000000 6.000000 1.000000 3
542 0.000000 6.500000 1.500000 3
543 0.500000 6.000000 1.500000 3
544 0.500000 6.500000 1.000000 3
545 1.000000 6.000000 1.000000 3
546 1.000000 6.500000 1.500000 3
547 1.500000 6.000000 1.500000 3
548 1.500000 6.500000 1.000000 3
549 2.000000 6.000000 1.000000 3
550 2.000000 6.500000 1.500000 3
551 2.500000 6.000000 1.500000 3
552 2.500000 6.500000 1.000000 3
553 3.000000 6.000000 1.000000 6
554 3.000000 6.500000 1.500000 6
555 3.500000 6.000000 1.500000 6
556 3.500000 6.500000 1.000000 6
557 4.000000 6.000000 1.000000 6
558 4.000000 6.500000 1.500000 6
559 4.500000 6.000000 1.500000 6
560 4.500000 6.500000 1.000000 6
561 5.000000 6.000000 1.000000 6
562 5.000000 6.500000 1.500000 6
563 5.500000 6.000000 1.500000 6
564 5.500000 6.500000 1.000000 6
565 6.000000 6.000000 1.000000 9
566 6.000000 6.500000 1.500000 9
567 6.500000 6.000000 1.500000 9
568 6.500000 6.500000 1.000000 9
569 7.000000 6.000000 1.000000 9
570 7.000000 6.500000 1.500000 9
571 7.500000 6.000000 1.500000 9
572 7.500000 6.500000 1.000000 9
573 8.000000 6.000000 1.000000 9
574 8.000000 6.500000 1.500000 9
575 8.500000 6.000000 1.500000 9
576 8.500000 6.500000 1.000000 9
577 0.000000 7.000000 1.000000 3
578 0.000000 7.500000 1.500000 3
579 0.500000 7.000000 1.500000 3
580 0.500000 7.500000 1.000000 3
581 1.000000 7.000000 1.000000 3
582 1.000000 7.500000 1.500000 3
583 1.500000 7.000000 1.500000 3
584 1.500000 7.500000 1.000000 3
585 2.000000 7.000000 1.000000 3
586 2.000000 7.500000 1.500000 3
587 2.500000 7.000000 1.500000 3
588 2.500000 7.500000 1.000000 3
589 3.000000 7.000000 1.000000 6
590 3.000000 7.500000 1.500000 6
591 3.500000 7.000000 1.500000 6
592 3.500000 7.500000 1.000000 6
593 4.000000 7.000000 1.000000 6
594 4.000000 7.500000 1.500000 6
595 4.500000 7.000000 1.500000 6
596 4.500000 7.500000 1.000000 6
597 5.000000 7.000000 1.000000 6
598 5.000000 7.500000 1.500000 6
599 5.500000 7.000000 1.500000 6
600 5.500000 7.500000 1.000000 6
601 6.000000 7.000000 1.000000 9
602 6.000000 7.500000 1.500000 9
603 6.500000 7.000000 1.500000 9
604 6.500000 7.500000 1.000000 9
605 7.000000 7.000000 1.000000 9
606 7.000000 7.500000 1.500000 9
607 7.500000 7.000000 1.500000 9
608 7.500000 7.500000 1.000000 9
609 8.000000 7.000000 1.000000 9
610 8.000000 7.500000 1.500000 9
611 8.500000 7.000000 1.500000 9
612 8.500000 7.500000 1.000000 9
613 0.000000 8.000000 1.000000 3
614 0.000000 8.500000 1.500000 3
615 0.500000 8.000000 1.500000 3
616 0.500000 8.500000 1.000000 3
617 1.000000 8.000000 1.000000 3
618 1.000000 8.500000 1.500000 3
619 1.500000 8.000000 1.500000 3
620 1.500000 8.500000 1.000000 3
621 2.000000 8.000000 1.000000 3
622 2.000000 8.500000 1.500000 3
623 2.500000 8.000000 1.500000 3
624 2.500000 8.500000 1.000000 3
625 3.000000 8.000000 1.000000 6
626 3.000000 8.500000 1.500000 6
627 3.500000 8.000000 1.500000 6
628 3.500000 8.500000 1.000000 6
629 4.000000 8.000000 1.000000 6
630 4.000000 8.500000 1.500000 6
631 4.500000 8.000000 1.500000 6
632 4.500000 8.500000 1.000000 6
633 5.000000 8.000000 1.000000 6
634 5.000000 8.500000 1.500000 6
635 5.500000 8.000000 1.500000 6
636 5.500000 8.500000 1.000000 6
637 6.000000 8.000000 1.000000 9
638 6.000000 8.500000 1.500000 9
639 6.500000 8.000000 1.500000 9
640 6.500000 8.500000 1.000000 9
641 7.000000 8.000000 1.000000 9
642 7.000000 8.500000 1.500000 9
643 7.500000 8.000000 1.500000 9
644 7.500000 8.500000 1.000000 9
645 8.000000 8.000000 1.000000 9
646 8.000000 8.500000 1.500000 9
647 8.500000 8.000000 1.500000 9
648 8.500000 8.500000 1.000000 9
649 0.000000 0.000000 2.000000 1
650 0.000000 0.500000 2.500000 1
651 0.500000 0.000000 2.500000 1
652 0.500000 0.500000 2.000000 1
653 1.000000 0.000000 2.000000 1
654 1.000000 0.500000 2.500000 1
655 1.500000 0.000000 2.500000 1
656 1.500000 0.500000 2.000000 1
657 2.000000 0.000000 2.000000 1
658 2.000000 0.500000 2.500000 1
659 2.500000 0.000000 2.500000 1
660 2.500000 0.500000 2.000000 1
661 3.000000 0.000000 2.000000 4
662 3.000000 0.500000 2.500000 4
663 3.500000 0.000000 2.500000 4
664 3.500000 0.500000 2.000000 4
665 4.000000 0.000000 2.000000 4
666 4.000000 0.500000 2.500000 4
667 4.500000 0.000000 2.500000 4
668 4.500000 0.500000 2.000000 4
669 5.000000 0.000000 2.000000 4
670 5.000000 0.500000 2.500000 4
671 5.500000 0.000000 2.500000 4
672 5.500000 0.500000 2.000000 4
673 6.000000 0.000000 2.000000 7
674 6.000000 0.500000 2.500000 7
675 6.500000 0.000000 2.500000 7
676 6.500000 0.500000 2.000000 7
677 7.000000 0.000000 2.000000 7
678 7.000000 0.500000 2.500000 7
679 7.500000 0.000000 2.500000 7
680 7.500000 0.500000 2.000000 7
681 8.000000 0.000000 2.000000 7
682 8.000000 0.500000 2.500000 7
683 8.500000 0.000000 2.500000 7
684 8.500000 0.500000 2.000000 7
685 0.000000 1.000000 2.000000 1
686 0.000000 1.500000 2.500000 1
687 0.500000 1.000000 2.500000 1
688 0.500000 1.500000 2.000000 1
689 1.000000 1.000000 2.000000 1
690 1.000000 1.500000 2.500000 1
691 1.500000 1.000000 2.500000 1
692 1.500000 1.500000 2.000000 1
693 2.000000 1.000000 2.000000 1
694 2.000000 1.500000 2.500000 1
695 2.500000 1.000000 2.500000 1
696 2.500000 1.500000 2.000000 1
697 3.000000 1.000000 2.000000 4
698 3.000000 1.500000 2.500000 4
699 3.500000 1.000000 2.500000 4
700 3.500000 1.500000 2.000000 4
701 4.000000 1.000000 2.000000 4
702 4.000000 1.500000 2.500000 4
703 4.500000 1.000000 2.500000 4
704 4.500000 1.500000 2.000000 4
705 5.000000 1.000000 2.000000 4
706 5.000000 1.500000 2.500000 4
707 5.500000 1.000000 2.500000 4
708 5.500000 1.500000 2.000000 4
709 6.000000 1.000000 2.000000 7
710 6.000000 1.500000 2.500000 7
711 6.500000 1.000000 2.500000 7
712 6.500000 1.500000 2.000000 7
713 7.000000 1.000000 2.000000 7
714 7.000000 1.500000 2.500000 7
715 7.500000 1.000000 2.500000 7
716 7.500000 1.500000 2.000000 7
717 8.000000 1.000000 2.000000 7
718 8.000000 1.500000 2.500000 7
719 8.500000 1.000000 2.500000 7
720 8.500000 1.500000 2.000000 7
721 0.000000 2.000000 2.000000 1
722 0.000000 2.500000 2.500000 1
723 0.500000 2.000000 2.500000 1
724 0.500000 2.500000 2.000000 1
725 1.000000 2.000000 2.000000 1
726 1.000000 2.500000 2.500000 1
727 1.500000 2.000000 2.500000 1
728 1.500000 2.500000 2.000000 1
729 2.000000 2.000000 2.000000 1
730 2.000000 2.500000 2.500000 1
731 2.500000 2.000000 2.500000 1
732 2.500000 2.500000 2.000000 1
733 3.000000 2.000000 2.000000 4
734 3.000000 2.500000 2.500000 4
735 3.500000 2.000000 2.500000 4
736 3.500000 2.500000 2.000000 4
737 4.000000 2.000000 2.000000 4
738 4.000000 2.500000 2.500000 4
739 4.500000 2.000000 2.500000 4
740 4.500000 2.500000 2.000000 4
741 5.000000 2.000000 2.000000 4
742 5.000000 2.500000 2.500000 4
743 5.500000 2.000000 2.500000 4
744 5.500000 2.500000 2.000000 4
745 6.000000 2.000000 2.000000 7
746 6.000000 2.500000 2.500000 7
747 6.500000 2.000000 2.500000 7
748 6.500000 2.500000 2.000000 7
749 7.000000 2.000000 2.000000 7
750 7.000000 2.500000 2.500000 7
751 7.500000 2.000000 2.500000 7
752 7.500000 2.500000 2.000000 7
753 8.000000 2.000000 2.000000 7
754 8.000000 2.500000 2.500000 7
755 8.500000 2.000000 2.500000 7
756 8.500000 2.500000 2.000000 7
757 0.000000 3.000000 2.000000 2
758 0.000000 3.500000 2.500000 2
759 0.500000 3.000000 2.500000 2
760 0.500000 3.500000 2.000000 2
761 1.000000 3.000000 2.000000 2
762 1.000000 3.500000 2.500000 2
763 1.500000 3.000000 2.500000 2
764 1.500000 3.500000 2.000000 2
765 2.000000 3.000000 2.000000 2
766 2.000000 3.500000 2.500000 2
767 2.500000 3.000000 2.500000 2
768 2.500000 3.500000 2.000000 2
769 3.000000 3.000000 2.000000 5
770 3.000000 3.500000 2.500000 5
771 3.500000 3.000000 2.500000 5
772 3.500000 3.500000 2.000000 5
773 4.000000 3.000000 2.000000 5
774 4.000000 3.500000 2.500000 5
775 4.500000 3.000000 2.500000 5
776 4.500000 3.500000 2.000000 5
777 5.000000 3.000000 2.000000 5
778 5.000000 3.500000 2.500000 5
779 5.500000 3.000000 2.500000 5
780 5.500000 3.500000 2.000000 5
781 6.000000 3.000000 2.000000 8
782 6.000000 3.500000 2.500000 8
783 6.500000 3.000000 2.500000 8
784 6.500000 3.500000 2.000000 8
785 7.000000 3.000000 2.000000 8
786 7.000000 3.500000 2.500000 8
787 7.500000 3.000000 2.500000 8
788 7.500000 3.500000 2.000000 8
789 8.000000 3.000000 2.000000 8
790 8.000000 3.500000 2.500000 8
791 8.500000 3.000000 2.500000 8
792 8.500000 3.500000 2.000000 8
793 0.000000 4.000000 2.000000 2
794 0.000000 4.500000 2.500000 2
795 0.500000 4.000000 2.500000 2
796 0.500000 4.500000 2.000000 2
797 1.000000 4.000000 2.000000 2
798 1.000000 4.500000 2.500000 2
799 1.500000 4.000000 2.500000 2
800 1.500000 4.500000 2.000000 2
801 2.000000 4.000000 2.000000 2
802 2.000000 4.500000 2.500000 2
803 2.500000 4.000000 2.500000 2
804 2.500000 4.500000 2.000000 2
805 3.000000 4.000000 2.000000 5
806 3.000000 4.500000 2.500000 5
807 3.500000 4.000000 2.500000 5
808 3.500000 4.500000 2.000000 5
809 4.000000 4.000000 2.000000 5
810 4.000000 4.500000 2.500000 5
811 4.500000 4.000000 2.500000 5
812 4.500000 4.500000 2.000000 5
813 5.000000 4.000000 2.000000 5
814 5.000000 4.500000 2.500000 5
815 5.500000 4.000000 2.500000 5
816 5.500000 4.500000 2.000000 5
817 6.000000 4.000000 2.000000 8
818 6.000000 4.500000 2.500000 8
819 6.500000 4.000000 2.500000 8
820 6.500000 4.500000 2.000000 8
821 7.000000 4.000000 2.000000 8
822 7.000000 4.500000 2.500000 8
823 7.500000 4.000000 2.500000 8
824 7.500000 4.500000 2.000000 8
825 8.000000 4.000000 2.000000 8
826 8.000000 4.500000 2.500000 8
827 8.500000 4.000000 2.500000 8
828 8.500000 4.500000 2.000000 8
829 0.000000 5.000000 2.000000 2
830 0.000000 5.500000 2.500000 2
831 0.500000 5.000000 2.500000 2
832 0.500000 5.500000 2.000000 2
833 1.000000 5.000000 2.000000 2
834 1.000000 5.500000 2.500000 2
835 1.500000 5.000000 2.500000 2
836 1.500000 5.500000 2.000000 2
837 2.000000 5.000000 2.000000 2
838 2.000000 5.500000 2.500000 2
839 2.500000 5.000000 2.500000 2
840 2.500000 5.500000 2.000000 2
841 3.000000 5.000000 2.000000 5
842 3.000000 5.500000 2.500000 5
843 3.500000 5.000000 2.500000 5
844 3.500000 5.500000 2.000000 5
845 4.000000 5.000000 2.000000 5
846 4.000000 5.500000 2.500000 5
847 4.500000 5.000000 2.500000 5
848 4.500000 5.500000 2.000000 5
849 5.000000 5.000000 2.000000 5
850 5.000000 5.500000 2.500000 5
851 5.500000 5.000000 2.500000 5
852 5.500000 5.500000 2.000000 5
853 6.000000 5.000000 2.000000 8
854 6.000000 5.500000 2.500000 8
855 6.500000 5.000000 2.500000 8
856 6.500000 5.500000 2.000000 8
857 7.000000 5.000000 2.000000 8
858 7.000000 5.500000 2.500000 8
859 7.500000 5.000000 2.500000 8
860 7.500000 5.500000 2.000000 8
861 8.000000 5.000000 2.000000 8
862 8.000000 5.500000 2.500000 8
863 8.500000 5.000000 2.500000 8
864 8.500000 5.500000 2.000000 8
865 0.000000 6.000000 2.000000 3
866 0.000000 6.500000 2.500000 3
867 0.500000 6.000000 2.500000 3
868 0.500000 6.500000 2.000000 3
869 1.000000 6.000000 2.000000 3
870 1.000000 6.500000 2.500000 3
871 1.500000 6.000000 2.500000 3
872 1.500000 6.500000 2.000000 3
873 2.000000 6.000000 2.000000 3
874 2.000000 6.500000 2.500000 3
875 2.500000 6.000000 2.500000 3
876 2.500000 6.500000 2.000000 3
877 3.000000 6.000000 2.000000 6
878 3.000000 6.500000 2.500000 6
879 3.500000 6.000000 2.500000 6
880 3.500000 6.500000 2.000000 6
881 4.000000 6.000000 2.000000 6
882 4.000000 6.500000 2.500000 6
883 4.500000 6.000000 2.500000 6
884 4.500000 6.500000 2.000000 6
885 5.000000 6.000000 2.000000 6
886 5.000000 6.500000 2.500000 6
887 5.500000 6.000000 2.500000 6
888 5.500000 6.500000 2.000000 6
889 6.000000 6.000000 2.000000 9
890 6.000000 6.500000 2.500000 9
891 6.500000 6.000000 2.500000 9
892 6.500000 6.500000 2.000000 9
893 7.000000 6.000000 2.000000 9
894 7.000000 6.500000 2.500000 9
895 7.500000 6.000000 2.500000 9
896 7.500000 6.500000 2.000000 9
897 8.000000 6.000000 2.000000 9
898 8.000000 6.500000 2.500000 9
899 8.500000 6.000000 2.500000 9
900 8.500000 6.500000 2.000000 9
901 0.000000 7.000000 2.000000 3
902 0.000000 7.500000 2.500000 3
903 0.500000 7.000000 2.500000 3
904 0.500000 7.500000 2.000000 3
905 1.000000 7.000000 2.000000 3
906 1.000000 7.500000 2.500000 3
907 1.500000 7.000000 2.500000 3